36
PN.log	Energy: -531377.5351096
C          0.00000        1.40974        0.00000
C          0.00000        0.72877        1.22655
C          0.00000       -0.72877        1.22655
C          0.00000       -1.40974        0.00000
C          0.00000       -0.72877       -1.22655
C          0.00000        0.72877       -1.22655
C         -0.00000        1.40907        2.46782
C         -0.00000        0.72791        3.67895
C          0.00000       -0.72791        3.67895
C          0.00000       -1.40907        2.46782
C         -0.00000        1.41150        4.94236
C          0.00000        0.71686        6.11867
C         -0.00000       -0.71686        6.11867
C          0.00000       -1.41150        4.94236
C          0.00000        1.40907       -2.46782
C          0.00000        0.72791       -3.67895
C         -0.00000       -0.72791       -3.67895
C          0.00000       -1.40907       -2.46782
C          0.00000        1.41150       -4.94236
C          0.00000        0.71686       -6.11867
C         -0.00000       -0.71686       -6.11867
C         -0.00000       -1.41150       -4.94236
H          0.00000        2.49766        0.00000
H          0.00000       -2.49766        0.00000
H         -0.00000        2.49710        2.46784
H          0.00000       -2.49710        2.46784
H         -0.00000        2.49890        4.94054
H          0.00000        1.24747        7.06680
H         -0.00000       -1.24747        7.06680
H          0.00000       -2.49890        4.94054
H          0.00000        2.49710       -2.46784
H          0.00000       -2.49710       -2.46784
H          0.00000        2.49890       -4.94054
H          0.00000        1.24747       -7.06680
H         -0.00000       -1.24747       -7.06680
H         -0.00000       -2.49890       -4.94054
